# vtk DataFile Version 3.0
vtk output
ASCII
DATASET UNSTRUCTURED_GRID
POINTS 200 double
0.000000e+00	-7.499975e-04	0.0	-1.675000e-02	-7.499975e-04	0.0	-1.750000e-02	0.000000e+00	0.0	-1.675000e-02	7.499975e-04	0.0	0.000000e+00	7.499975e-04	0.0	1.675000e-02	7.499975e-04	0.0	1.750000e-02	0.000000e+00	0.0	1.675000e-02	-7.499975e-04	0.0	-7.831215e-04	-7.499975e-04	0.0	-1.543434e-03	-7.499975e-04	0.0	-2.281601e-03	-7.499975e-04	0.0	-2.998268e-03	-7.499975e-04	0.0	-3.694061e-03	-7.499975e-04	0.0	-4.369589e-03	-7.499975e-04	0.0	-5.025441e-03	-7.499975e-04	0.0	-5.662190e-03	-7.499975e-04	0.0	-6.280394e-03	-7.499975e-04	0.0	-6.880591e-03	-7.499975e-04	0.0	-7.463307e-03	-7.499975e-04	0.0	-8.029051e-03	-7.499975e-04	0.0	-8.578316e-03	-7.499975e-04	0.0	-9.111584e-03	-7.499975e-04	0.0	-9.629319e-03	-7.499975e-04	0.0	-1.013198e-02	-7.499975e-04	0.0	-1.061999e-02	-7.499975e-04	0.0	-1.109379e-02	-7.499975e-04	0.0	-1.155379e-02	-7.499975e-04	0.0	-1.200040e-02	-7.499975e-04	0.0	-1.243399e-02	-7.499975e-04	0.0	-1.285496e-02	-7.499975e-04	0.0	-1.326366e-02	-7.499975e-04	0.0	-1.366047e-02	-7.499975e-04	0.0	-1.404571e-02	-7.499975e-04	0.0	-1.441973e-02	-7.499975e-04	0.0	-1.478286e-02	-7.499975e-04	0.0	-1.513541e-02	-7.499975e-04	0.0	-1.547770e-02	-7.499975e-04	0.0	-1.581001e-02	-7.499975e-04	0.0	-1.613265e-02	-7.499975e-04	0.0	-1.644589e-02	-7.499975e-04	0.0	-1.686109e-02	-7.417256e-04	0.0	-1.696291e-02	-7.191425e-04	0.0	-1.705455e-02	-6.853811e-04	0.0	-1.713569e-02	-6.432254e-04	0.0	-1.720649e-02	-5.950771e-04	0.0	-1.726739e-02	-5.429564e-04	0.0	-1.731907e-02	-4.885242e-04	0.0	-1.736230e-02	-4.331169e-04	0.0	-1.739790e-02	-3.777859e-04	0.0	-1.742672e-02	-3.233391e-04	0.0	-1.744957e-02	-2.703792e-04	0.0	-1.746721e-02	-2.193406e-04	0.0	-1.748036e-02	-1.705205e-04	0.0	-1.748966e-02	-1.241064e-04	0.0	-1.749570e-02	-8.020005e-05	0.0	-1.749899e-02	-3.883642e-05	0.0	-1.749899e-02	3.883642e-05	0.0	-1.749570e-02	8.020005e-05	0.0	-1.748966e-02	1.241064e-04	0.0	-1.748036e-02	1.705205e-04	0.0	-1.746721e-02	2.193406e-04	0.0	-1.744957e-02	2.703792e-04	0.0	-1.742672e-02	3.233391e-04	0.0	-1.739790e-02	3.777859e-04	0.0	-1.736230e-02	4.331169e-04	0.0	-1.731907e-02	4.885242e-04	0.0	-1.726739e-02	5.429564e-04	0.0	-1.720649e-02	5.950771e-04	0.0	-1.713569e-02	6.432254e-04	0.0	-1.705455e-02	6.853811e-04	0.0	-1.696291e-02	7.191425e-04	0.0	-1.686109e-02	7.417256e-04	0.0	-1.644589e-02	7.499975e-04	0.0	-1.613265e-02	7.499975e-04	0.0	-1.581001e-02	7.499975e-04	0.0	-1.547770e-02	7.499975e-04	0.0	-1.513541e-02	7.499975e-04	0.0	-1.478286e-02	7.499975e-04	0.0	-1.441973e-02	7.499975e-04	0.0	-1.404571e-02	7.499975e-04	0.0	-1.366047e-02	7.499975e-04	0.0	-1.326366e-02	7.499975e-04	0.0	-1.285496e-02	7.499975e-04	0.0	-1.243399e-02	7.499975e-04	0.0	-1.200040e-02	7.499975e-04	0.0	-1.155379e-02	7.499975e-04	0.0	-1.109379e-02	7.499975e-04	0.0	-1.061999e-02	7.499975e-04	0.0	-1.013198e-02	7.499975e-04	0.0	-9.629319e-03	7.499975e-04	0.0	-9.111584e-03	7.499975e-04	0.0	-8.578316e-03	7.499975e-04	0.0	-8.029051e-03	7.499975e-04	0.0	-7.463307e-03	7.499975e-04	0.0	-6.880591e-03	7.499975e-04	0.0	-6.280394e-03	7.499975e-04	0.0	-5.662190e-03	7.499975e-04	0.0	-5.025441e-03	7.499975e-04	0.0	-4.369589e-03	7.499975e-04	0.0	-3.694061e-03	7.499975e-04	0.0	-2.998268e-03	7.499975e-04	0.0	-2.281601e-03	7.499975e-04	0.0	-1.543434e-03	7.499975e-04	0.0	-7.831215e-04	7.499975e-04	0.0	7.831215e-04	7.499975e-04	0.0	1.543434e-03	7.499975e-04	0.0	2.281601e-03	7.499975e-04	0.0	2.998268e-03	7.499975e-04	0.0	3.694061e-03	7.499975e-04	0.0	4.369589e-03	7.499975e-04	0.0	5.025441e-03	7.499975e-04	0.0	5.662190e-03	7.499975e-04	0.0	6.280394e-03	7.499975e-04	0.0	6.880591e-03	7.499975e-04	0.0	7.463307e-03	7.499975e-04	0.0	8.029051e-03	7.499975e-04	0.0	8.578316e-03	7.499975e-04	0.0	9.111584e-03	7.499975e-04	0.0	9.629319e-03	7.499975e-04	0.0	1.013198e-02	7.499975e-04	0.0	1.061999e-02	7.499975e-04	0.0	1.109379e-02	7.499975e-04	0.0	1.155379e-02	7.499975e-04	0.0	1.200040e-02	7.499975e-04	0.0	1.243399e-02	7.499975e-04	0.0	1.285496e-02	7.499975e-04	0.0	1.326366e-02	7.499975e-04	0.0	1.366047e-02	7.499975e-04	0.0	1.404571e-02	7.499975e-04	0.0	1.441973e-02	7.499975e-04	0.0	1.478286e-02	7.499975e-04	0.0	1.513541e-02	7.499975e-04	0.0	1.547770e-02	7.499975e-04	0.0	1.581001e-02	7.499975e-04	0.0	1.613265e-02	7.499975e-04	0.0	1.644589e-02	7.499975e-04	0.0	1.686109e-02	7.417256e-04	0.0	1.696291e-02	7.191425e-04	0.0	1.705455e-02	6.853811e-04	0.0	1.713569e-02	6.432254e-04	0.0	1.720649e-02	5.950771e-04	0.0	1.726739e-02	5.429564e-04	0.0	1.731907e-02	4.885242e-04	0.0	1.736230e-02	4.331169e-04	0.0	1.739790e-02	3.777859e-04	0.0	1.742672e-02	3.233391e-04	0.0	1.744957e-02	2.703792e-04	0.0	1.746721e-02	2.193406e-04	0.0	1.748036e-02	1.705205e-04	0.0	1.748966e-02	1.241064e-04	0.0	1.749570e-02	8.020005e-05	0.0	1.749899e-02	3.883642e-05	0.0	1.749899e-02	-3.883642e-05	0.0	1.749570e-02	-8.020005e-05	0.0	1.748966e-02	-1.241064e-04	0.0	1.748036e-02	-1.705205e-04	0.0	1.746721e-02	-2.193406e-04	0.0	1.744957e-02	-2.703792e-04	0.0	1.742672e-02	-3.233391e-04	0.0	1.739790e-02	-3.777859e-04	0.0	1.736230e-02	-4.331169e-04	0.0	1.731907e-02	-4.885242e-04	0.0	1.726739e-02	-5.429564e-04	0.0	1.720649e-02	-5.950771e-04	0.0	1.713569e-02	-6.432254e-04	0.0	1.705455e-02	-6.853811e-04	0.0	1.696291e-02	-7.191425e-04	0.0	1.686109e-02	-7.417256e-04	0.0	1.644589e-02	-7.499975e-04	0.0	1.613265e-02	-7.499975e-04	0.0	1.581001e-02	-7.499975e-04	0.0	1.547770e-02	-7.499975e-04	0.0	1.513541e-02	-7.499975e-04	0.0	1.478286e-02	-7.499975e-04	0.0	1.441973e-02	-7.499975e-04	0.0	1.404571e-02	-7.499975e-04	0.0	1.366047e-02	-7.499975e-04	0.0	1.326366e-02	-7.499975e-04	0.0	1.285496e-02	-7.499975e-04	0.0	1.243399e-02	-7.499975e-04	0.0	1.200040e-02	-7.499975e-04	0.0	1.155379e-02	-7.499975e-04	0.0	1.109379e-02	-7.499975e-04	0.0	1.061999e-02	-7.499975e-04	0.0	1.013198e-02	-7.499975e-04	0.0	9.629319e-03	-7.499975e-04	0.0	9.111584e-03	-7.499975e-04	0.0	8.578316e-03	-7.499975e-04	0.0	8.029051e-03	-7.499975e-04	0.0	7.463307e-03	-7.499975e-04	0.0	6.880591e-03	-7.499975e-04	0.0	6.280394e-03	-7.499975e-04	0.0	5.662190e-03	-7.499975e-04	0.0	5.025441e-03	-7.499975e-04	0.0	4.369589e-03	-7.499975e-04	0.0	3.694061e-03	-7.499975e-04	0.0	2.998268e-03	-7.499975e-04	0.0	2.281601e-03	-7.499975e-04	0.0	1.543434e-03	-7.499975e-04	0.0	7.831215e-04	-7.499975e-04	0.0	
CELLS 200	600
2	0	8	2	8	9	2	9	10	2	10	11	2	11	12	2	12	13	2	13	14	2	14	15	2	15	16	2	16	17	2	17	18	2	18	19	2	19	20	2	20	21	2	21	22	2	22	23	2	23	24	2	24	25	2	25	26	2	26	27	2	27	28	2	28	29	2	29	30	2	30	31	2	31	32	2	32	33	2	33	34	2	34	35	2	35	36	2	36	37	2	37	38	2	38	39	2	39	1	2	1	40	2	40	41	2	41	42	2	42	43	2	43	44	2	44	45	2	45	46	2	46	47	2	47	48	2	48	49	2	49	50	2	50	51	2	51	52	2	52	53	2	53	54	2	54	55	2	55	2	2	2	56	2	56	57	2	57	58	2	58	59	2	59	60	2	60	61	2	61	62	2	62	63	2	63	64	2	64	65	2	65	66	2	66	67	2	67	68	2	68	69	2	69	70	2	70	71	2	71	3	2	3	72	2	72	73	2	73	74	2	74	75	2	75	76	2	76	77	2	77	78	2	78	79	2	79	80	2	80	81	2	81	82	2	82	83	2	83	84	2	84	85	2	85	86	2	86	87	2	87	88	2	88	89	2	89	90	2	90	91	2	91	92	2	92	93	2	93	94	2	94	95	2	95	96	2	96	97	2	97	98	2	98	99	2	99	100	2	100	101	2	101	102	2	102	103	2	103	4	2	4	104	2	104	105	2	105	106	2	106	107	2	107	108	2	108	109	2	109	110	2	110	111	2	111	112	2	112	113	2	113	114	2	114	115	2	115	116	2	116	117	2	117	118	2	118	119	2	119	120	2	120	121	2	121	122	2	122	123	2	123	124	2	124	125	2	125	126	2	126	127	2	127	128	2	128	129	2	129	130	2	130	131	2	131	132	2	132	133	2	133	134	2	134	135	2	135	5	2	5	136	2	136	137	2	137	138	2	138	139	2	139	140	2	140	141	2	141	142	2	142	143	2	143	144	2	144	145	2	145	146	2	146	147	2	147	148	2	148	149	2	149	150	2	150	151	2	151	6	2	6	152	2	152	153	2	153	154	2	154	155	2	155	156	2	156	157	2	157	158	2	158	159	2	159	160	2	160	161	2	161	162	2	162	163	2	163	164	2	164	165	2	165	166	2	166	167	2	167	7	2	7	168	2	168	169	2	169	170	2	170	171	2	171	172	2	172	173	2	173	174	2	174	175	2	175	176	2	176	177	2	177	178	2	178	179	2	179	180	2	180	181	2	181	182	2	182	183	2	183	184	2	184	185	2	185	186	2	186	187	2	187	188	2	188	189	2	189	190	2	190	191	2	191	192	2	192	193	2	193	194	2	194	195	2	195	196	2	196	197	2	197	198	2	198	199	2	199	0	
CELL_TYPES 200
3	3	3	3	3	3	3	3	3	3	3	3	3	3	3	3	3	3	3	3	3	3	3	3	3	3	3	3	3	3	3	3	3	3	3	3	3	3	3	3	3	3	3	3	3	3	3	3	3	3	3	3	3	3	3	3	3	3	3	3	3	3	3	3	3	3	3	3	3	3	3	3	3	3	3	3	3	3	3	3	3	3	3	3	3	3	3	3	3	3	3	3	3	3	3	3	3	3	3	3	3	3	3	3	3	3	3	3	3	3	3	3	3	3	3	3	3	3	3	3	3	3	3	3	3	3	3	3	3	3	3	3	3	3	3	3	3	3	3	3	3	3	3	3	3	3	3	3	3	3	3	3	3	3	3	3	3	3	3	3	3	3	3	3	3	3	3	3	3	3	3	3	3	3	3	3	3	3	3	3	3	3	3	3	3	3	3	3	3	3	3	3	3	3	3	3	3	3	3	3	
POINT_DATA 200

SCALARS Density double 1
LOOKUP_TABLE default
1.205059e+00	1.320922e+00	1.312789e+00	1.321047e+00	1.204997e+00	1.102679e+00	1.096190e+00	1.102636e+00	1.210239e+00	1.215452e+00	1.220610e+00	1.225686e+00	1.230630e+00	1.235444e+00	1.240135e+00	1.244738e+00	1.249204e+00	1.253563e+00	1.257821e+00	1.262023e+00	1.266105e+00	1.270096e+00	1.274002e+00	1.277862e+00	1.281597e+00	1.285216e+00	1.288728e+00	1.292170e+00	1.295505e+00	1.298741e+00	1.301877e+00	1.304930e+00	1.307886e+00	1.310748e+00	1.313497e+00	1.316117e+00	1.318554e+00	1.320613e+00	1.322125e+00	1.322409e+00	1.320195e+00	1.318103e+00	1.316861e+00	1.315754e+00	1.315079e+00	1.314570e+00	1.314229e+00	1.313952e+00	1.313739e+00	1.313552e+00	1.313391e+00	1.313240e+00	1.313107e+00	1.312988e+00	1.312896e+00	1.312823e+00	1.312816e+00	1.312881e+00	1.312970e+00	1.313086e+00	1.313222e+00	1.313376e+00	1.313547e+00	1.313742e+00	1.313966e+00	1.314248e+00	1.314593e+00	1.315116e+00	1.315813e+00	1.316974e+00	1.318212e+00	1.320340e+00	1.322565e+00	1.322232e+00	1.320704e+00	1.318624e+00	1.316171e+00	1.313530e+00	1.310754e+00	1.307888e+00	1.304921e+00	1.301872e+00	1.298724e+00	1.295474e+00	1.292092e+00	1.288631e+00	1.285093e+00	1.281475e+00	1.277734e+00	1.273927e+00	1.270034e+00	1.266052e+00	1.261925e+00	1.257729e+00	1.253448e+00	1.249087e+00	1.244608e+00	1.240051e+00	1.235386e+00	1.230603e+00	1.225666e+00	1.220602e+00	1.215430e+00	1.210210e+00	1.199855e+00	1.194778e+00	1.189845e+00	1.185046e+00	1.180424e+00	1.175974e+00	1.171693e+00	1.167568e+00	1.163602e+00	1.159778e+00	1.156095e+00	1.152535e+00	1.149102e+00	1.145783e+00	1.142579e+00	1.139482e+00	1.136494e+00	1.133606e+00	1.130821e+00	1.128130e+00	1.125528e+00	1.123010e+00	1.120575e+00	1.118224e+00	1.115940e+00	1.113725e+00	1.111589e+00	1.109570e+00	1.107680e+00	1.106013e+00	1.104549e+00	1.103432e+00	1.101030e+00	1.099889e+00	1.098463e+00	1.097121e+00	1.095780e+00	1.094640e+00	1.093700e+00	1.093163e+00	1.093023e+00	1.093225e+00	1.093726e+00	1.094271e+00	1.094873e+00	1.095380e+00	1.095847e+00	1.096107e+00	1.096094e+00	1.095801e+00	1.095411e+00	1.094869e+00	1.094291e+00	1.093646e+00	1.093217e+00	1.093030e+00	1.093218e+00	1.093788e+00	1.094662e+00	1.095814e+00	1.097126e+00	1.098518e+00	1.099851e+00	1.100985e+00	1.103456e+00	1.104587e+00	1.106048e+00	1.107708e+00	1.109580e+00	1.111612e+00	1.113749e+00	1.115962e+00	1.118238e+00	1.120593e+00	1.123029e+00	1.125548e+00	1.128154e+00	1.130851e+00	1.133643e+00	1.136528e+00	1.139515e+00	1.142605e+00	1.145808e+00	1.149124e+00	1.152562e+00	1.156121e+00	1.159810e+00	1.163631e+00	1.167599e+00	1.171714e+00	1.175996e+00	1.180449e+00	1.185089e+00	1.189893e+00	1.194864e+00	1.199933e+00	
VECTORS Momentum double
0.000000e+00	0.000000e+00	0.0	0.000000e+00	0.000000e+00	0.0	0.000000e+00	0.000000e+00	0.0	0.000000e+00	0.000000e+00	0.0	0.000000e+00	0.000000e+00	0.0	0.000000e+00	0.000000e+00	0.0	0.000000e+00	0.000000e+00	0.0	0.000000e+00	0.000000e+00	0.0	0.000000e+00	0.000000e+00	0.0	0.000000e+00	0.000000e+00	0.0	0.000000e+00	0.000000e+00	0.0	0.000000e+00	0.000000e+00	0.0	0.000000e+00	0.000000e+00	0.0	0.000000e+00	0.000000e+00	0.0	0.000000e+00	0.000000e+00	0.0	0.000000e+00	0.000000e+00	0.0	0.000000e+00	0.000000e+00	0.0	0.000000e+00	0.000000e+00	0.0	0.000000e+00	0.000000e+00	0.0	0.000000e+00	0.000000e+00	0.0	0.000000e+00	0.000000e+00	0.0	0.000000e+00	0.000000e+00	0.0	0.000000e+00	0.000000e+00	0.0	0.000000e+00	0.000000e+00	0.0	0.000000e+00	0.000000e+00	0.0	0.000000e+00	0.000000e+00	0.0	0.000000e+00	0.000000e+00	0.0	0.000000e+00	0.000000e+00	0.0	0.000000e+00	0.000000e+00	0.0	0.000000e+00	0.000000e+00	0.0	0.000000e+00	0.000000e+00	0.0	0.000000e+00	0.000000e+00	0.0	0.000000e+00	0.000000e+00	0.0	0.000000e+00	0.000000e+00	0.0	0.000000e+00	0.000000e+00	0.0	0.000000e+00	0.000000e+00	0.0	0.000000e+00	0.000000e+00	0.0	0.000000e+00	0.000000e+00	0.0	0.000000e+00	0.000000e+00	0.0	0.000000e+00	0.000000e+00	0.0	0.000000e+00	0.000000e+00	0.0	0.000000e+00	0.000000e+00	0.0	0.000000e+00	0.000000e+00	0.0	0.000000e+00	0.000000e+00	0.0	0.000000e+00	0.000000e+00	0.0	0.000000e+00	0.000000e+00	0.0	0.000000e+00	0.000000e+00	0.0	0.000000e+00	0.000000e+00	0.0	0.000000e+00	0.000000e+00	0.0	0.000000e+00	0.000000e+00	0.0	0.000000e+00	0.000000e+00	0.0	0.000000e+00	0.000000e+00	0.0	0.000000e+00	0.000000e+00	0.0	0.000000e+00	0.000000e+00	0.0	0.000000e+00	0.000000e+00	0.0	0.000000e+00	0.000000e+00	0.0	0.000000e+00	0.000000e+00	0.0	0.000000e+00	0.000000e+00	0.0	0.000000e+00	0.000000e+00	0.0	0.000000e+00	0.000000e+00	0.0	0.000000e+00	0.000000e+00	0.0	0.000000e+00	0.000000e+00	0.0	0.000000e+00	0.000000e+00	0.0	0.000000e+00	0.000000e+00	0.0	0.000000e+00	0.000000e+00	0.0	0.000000e+00	0.000000e+00	0.0	0.000000e+00	0.000000e+00	0.0	0.000000e+00	0.000000e+00	0.0	0.000000e+00	0.000000e+00	0.0	0.000000e+00	0.000000e+00	0.0	0.000000e+00	0.000000e+00	0.0	0.000000e+00	0.000000e+00	0.0	0.000000e+00	0.000000e+00	0.0	0.000000e+00	0.000000e+00	0.0	0.000000e+00	0.000000e+00	0.0	0.000000e+00	0.000000e+00	0.0	0.000000e+00	0.000000e+00	0.0	0.000000e+00	0.000000e+00	0.0	0.000000e+00	0.000000e+00	0.0	0.000000e+00	0.000000e+00	0.0	0.000000e+00	0.000000e+00	0.0	0.000000e+00	0.000000e+00	0.0	0.000000e+00	0.000000e+00	0.0	0.000000e+00	0.000000e+00	0.0	0.000000e+00	0.000000e+00	0.0	0.000000e+00	0.000000e+00	0.0	0.000000e+00	0.000000e+00	0.0	0.000000e+00	0.000000e+00	0.0	0.000000e+00	0.000000e+00	0.0	0.000000e+00	0.000000e+00	0.0	0.000000e+00	0.000000e+00	0.0	0.000000e+00	0.000000e+00	0.0	0.000000e+00	0.000000e+00	0.0	0.000000e+00	0.000000e+00	0.0	0.000000e+00	0.000000e+00	0.0	0.000000e+00	0.000000e+00	0.0	0.000000e+00	0.000000e+00	0.0	0.000000e+00	0.000000e+00	0.0	0.000000e+00	0.000000e+00	0.0	0.000000e+00	0.000000e+00	0.0	0.000000e+00	0.000000e+00	0.0	0.000000e+00	0.000000e+00	0.0	0.000000e+00	0.000000e+00	0.0	0.000000e+00	0.000000e+00	0.0	0.000000e+00	0.000000e+00	0.0	0.000000e+00	0.000000e+00	0.0	0.000000e+00	0.000000e+00	0.0	0.000000e+00	0.000000e+00	0.0	0.000000e+00	0.000000e+00	0.0	0.000000e+00	0.000000e+00	0.0	0.000000e+00	0.000000e+00	0.0	0.000000e+00	0.000000e+00	0.0	0.000000e+00	0.000000e+00	0.0	0.000000e+00	0.000000e+00	0.0	0.000000e+00	0.000000e+00	0.0	0.000000e+00	0.000000e+00	0.0	0.000000e+00	0.000000e+00	0.0	0.000000e+00	0.000000e+00	0.0	0.000000e+00	0.000000e+00	0.0	0.000000e+00	0.000000e+00	0.0	0.000000e+00	0.000000e+00	0.0	0.000000e+00	0.000000e+00	0.0	0.000000e+00	0.000000e+00	0.0	0.000000e+00	0.000000e+00	0.0	0.000000e+00	0.000000e+00	0.0	0.000000e+00	0.000000e+00	0.0	0.000000e+00	0.000000e+00	0.0	0.000000e+00	0.000000e+00	0.0	0.000000e+00	0.000000e+00	0.0	0.000000e+00	0.000000e+00	0.0	0.000000e+00	0.000000e+00	0.0	0.000000e+00	0.000000e+00	0.0	0.000000e+00	0.000000e+00	0.0	0.000000e+00	0.000000e+00	0.0	0.000000e+00	0.000000e+00	0.0	0.000000e+00	0.000000e+00	0.0	0.000000e+00	0.000000e+00	0.0	0.000000e+00	0.000000e+00	0.0	0.000000e+00	0.000000e+00	0.0	0.000000e+00	0.000000e+00	0.0	0.000000e+00	0.000000e+00	0.0	0.000000e+00	0.000000e+00	0.0	0.000000e+00	0.000000e+00	0.0	0.000000e+00	0.000000e+00	0.0	0.000000e+00	0.000000e+00	0.0	0.000000e+00	0.000000e+00	0.0	0.000000e+00	0.000000e+00	0.0	0.000000e+00	0.000000e+00	0.0	0.000000e+00	0.000000e+00	0.0	0.000000e+00	0.000000e+00	0.0	0.000000e+00	0.000000e+00	0.0	0.000000e+00	0.000000e+00	0.0	0.000000e+00	0.000000e+00	0.0	0.000000e+00	0.000000e+00	0.0	0.000000e+00	0.000000e+00	0.0	0.000000e+00	0.000000e+00	0.0	0.000000e+00	0.000000e+00	0.0	0.000000e+00	0.000000e+00	0.0	0.000000e+00	0.000000e+00	0.0	0.000000e+00	0.000000e+00	0.0	0.000000e+00	0.000000e+00	0.0	0.000000e+00	0.000000e+00	0.0	0.000000e+00	0.000000e+00	0.0	0.000000e+00	0.000000e+00	0.0	0.000000e+00	0.000000e+00	0.0	0.000000e+00	0.000000e+00	0.0	0.000000e+00	0.000000e+00	0.0	0.000000e+00	0.000000e+00	0.0	0.000000e+00	0.000000e+00	0.0	0.000000e+00	0.000000e+00	0.0	0.000000e+00	0.000000e+00	0.0	0.000000e+00	0.000000e+00	0.0	0.000000e+00	0.000000e+00	0.0	0.000000e+00	0.000000e+00	0.0	0.000000e+00	0.000000e+00	0.0	0.000000e+00	0.000000e+00	0.0	0.000000e+00	0.000000e+00	0.0	0.000000e+00	0.000000e+00	0.0	0.000000e+00	0.000000e+00	0.0	0.000000e+00	0.000000e+00	0.0	0.000000e+00	0.000000e+00	0.0	0.000000e+00	0.000000e+00	0.0	0.000000e+00	0.000000e+00	0.0	0.000000e+00	0.000000e+00	0.0	0.000000e+00	0.000000e+00	0.0	0.000000e+00	0.000000e+00	0.0	0.000000e+00	0.000000e+00	0.0	0.000000e+00	0.000000e+00	0.0	0.000000e+00	0.000000e+00	0.0	0.000000e+00	0.000000e+00	0.0	0.000000e+00	0.000000e+00	0.0	0.000000e+00	0.000000e+00	0.0	0.000000e+00	0.000000e+00	0.0	0.000000e+00	0.000000e+00	0.0	0.000000e+00	0.000000e+00	0.0	0.000000e+00	0.000000e+00	0.0	0.000000e+00	0.000000e+00	0.0	0.000000e+00	0.000000e+00	0.0	0.000000e+00	0.000000e+00	0.0	0.000000e+00	0.000000e+00	0.0	
SCALARS Energy double 1
LOOKUP_TABLE default
2.533580e+05	2.530816e+05	2.535655e+05	2.530807e+05	2.533577e+05	2.533537e+05	2.533859e+05	2.533523e+05	2.533577e+05	2.533579e+05	2.533579e+05	2.533580e+05	2.533579e+05	2.533578e+05	2.533576e+05	2.533575e+05	2.533572e+05	2.533569e+05	2.533566e+05	2.533562e+05	2.533558e+05	2.533552e+05	2.533547e+05	2.533540e+05	2.533532e+05	2.533524e+05	2.533512e+05	2.533501e+05	2.533485e+05	2.533469e+05	2.533446e+05	2.533425e+05	2.533392e+05	2.533356e+05	2.533309e+05	2.533252e+05	2.533189e+05	2.533050e+05	2.533047e+05	2.532561e+05	2.532272e+05	2.531390e+05	2.531907e+05	2.532103e+05	2.532623e+05	2.533055e+05	2.533545e+05	2.533976e+05	2.534379e+05	2.534723e+05	2.535013e+05	2.535244e+05	2.535422e+05	2.535547e+05	2.535630e+05	2.535659e+05	2.535659e+05	2.535630e+05	2.535545e+05	2.535422e+05	2.535242e+05	2.535013e+05	2.534720e+05	2.534380e+05	2.533973e+05	2.533546e+05	2.533052e+05	2.532624e+05	2.532098e+05	2.531912e+05	2.531383e+05	2.532281e+05	2.532567e+05	2.533047e+05	2.533050e+05	2.533188e+05	2.533249e+05	2.533314e+05	2.533353e+05	2.533394e+05	2.533421e+05	2.533450e+05	2.533467e+05	2.533486e+05	2.533499e+05	2.533513e+05	2.533522e+05	2.533532e+05	2.533539e+05	2.533546e+05	2.533552e+05	2.533557e+05	2.533561e+05	2.533565e+05	2.533568e+05	2.533571e+05	2.533574e+05	2.533576e+05	2.533577e+05	2.533578e+05	2.533579e+05	2.533579e+05	2.533578e+05	2.533578e+05	2.533579e+05	2.533577e+05	2.533576e+05	2.533574e+05	2.533571e+05	2.533568e+05	2.533565e+05	2.533562e+05	2.533558e+05	2.533555e+05	2.533551e+05	2.533547e+05	2.533542e+05	2.533537e+05	2.533531e+05	2.533525e+05	2.533519e+05	2.533511e+05	2.533503e+05	2.533494e+05	2.533484e+05	2.533473e+05	2.533461e+05	2.533446e+05	2.533428e+05	2.533407e+05	2.533383e+05	2.533353e+05	2.533315e+05	2.533285e+05	2.533148e+05	2.533153e+05	2.531989e+05	2.532125e+05	2.532154e+05	2.532446e+05	2.532665e+05	2.532919e+05	2.533095e+05	2.533252e+05	2.533359e+05	2.533453e+05	2.533541e+05	2.533622e+05	2.533706e+05	2.533768e+05	2.533830e+05	2.533857e+05	2.533856e+05	2.533824e+05	2.533777e+05	2.533701e+05	2.533625e+05	2.533536e+05	2.533454e+05	2.533362e+05	2.533247e+05	2.533100e+05	2.532911e+05	2.532672e+05	2.532437e+05	2.532167e+05	2.532105e+05	2.532004e+05	2.533171e+05	2.533133e+05	2.533294e+05	2.533308e+05	2.533358e+05	2.533380e+05	2.533408e+05	2.533428e+05	2.533446e+05	2.533460e+05	2.533473e+05	2.533485e+05	2.533495e+05	2.533503e+05	2.533512e+05	2.533519e+05	2.533526e+05	2.533531e+05	2.533537e+05	2.533542e+05	2.533547e+05	2.533551e+05	2.533555e+05	2.533559e+05	2.533562e+05	2.533565e+05	2.533568e+05	2.533571e+05	2.533574e+05	2.533576e+05	2.533578e+05	2.533580e+05	
SCALARS Turb_Kin_Energy double 1
LOOKUP_TABLE default
1.000000e-10	1.000000e-10	1.000000e-10	1.000000e-10	1.000000e-10	1.000000e-10	1.000000e-10	1.000000e-10	1.000000e-10	1.000000e-10	1.000000e-10	1.000000e-10	1.000000e-10	1.000000e-10	1.000000e-10	1.000000e-10	1.000000e-10	1.000000e-10	1.000000e-10	1.000000e-10	1.000000e-10	1.000000e-10	1.000000e-10	1.000000e-10	1.000000e-10	1.000000e-10	1.000000e-10	1.000000e-10	1.000000e-10	1.000000e-10	1.000000e-10	1.000000e-10	1.000000e-10	1.000000e-10	1.000000e-10	1.000000e-10	1.000000e-10	1.000000e-10	1.000000e-10	1.000000e-10	1.000000e-10	1.000000e-10	1.000000e-10	1.000000e-10	1.000000e-10	1.000000e-10	1.000000e-10	1.000000e-10	1.000000e-10	1.000000e-10	1.000000e-10	1.000000e-10	1.000000e-10	1.000000e-10	1.000000e-10	1.000000e-10	1.000000e-10	1.000000e-10	1.000000e-10	1.000000e-10	1.000000e-10	1.000000e-10	1.000000e-10	1.000000e-10	1.000000e-10	1.000000e-10	1.000000e-10	1.000000e-10	1.000000e-10	1.000000e-10	1.000000e-10	1.000000e-10	1.000000e-10	1.000000e-10	1.000000e-10	1.000000e-10	1.000000e-10	1.000000e-10	1.000000e-10	1.000000e-10	1.000000e-10	1.000000e-10	1.000000e-10	1.000000e-10	1.000000e-10	1.000000e-10	1.000000e-10	1.000000e-10	1.000000e-10	1.000000e-10	1.000000e-10	1.000000e-10	1.000000e-10	1.000000e-10	1.000000e-10	1.000000e-10	1.000000e-10	1.000000e-10	1.000000e-10	1.000000e-10	1.000000e-10	1.000000e-10	1.000000e-10	1.000000e-10	1.000000e-10	1.000000e-10	1.000000e-10	1.000000e-10	1.000000e-10	1.000000e-10	1.000000e-10	1.000000e-10	1.000000e-10	1.000000e-10	1.000000e-10	1.000000e-10	1.000000e-10	1.000000e-10	1.000000e-10	1.000000e-10	1.000000e-10	1.000000e-10	1.000000e-10	1.000000e-10	1.000000e-10	1.000000e-10	1.000000e-10	1.000000e-10	1.000000e-10	1.000000e-10	1.000000e-10	1.000000e-10	1.000000e-10	1.000000e-10	1.000000e-10	1.000000e-10	1.000000e-10	1.000000e-10	1.000000e-10	1.000000e-10	1.000000e-10	1.000000e-10	1.000000e-10	1.000000e-10	1.000000e-10	1.000000e-10	1.000000e-10	1.000000e-10	1.000000e-10	1.000000e-10	1.000000e-10	1.000000e-10	1.000000e-10	1.000000e-10	1.000000e-10	1.000000e-10	1.000000e-10	1.000000e-10	1.000000e-10	1.000000e-10	1.000000e-10	1.000000e-10	1.000000e-10	1.000000e-10	1.000000e-10	1.000000e-10	1.000000e-10	1.000000e-10	1.000000e-10	1.000000e-10	1.000000e-10	1.000000e-10	1.000000e-10	1.000000e-10	1.000000e-10	1.000000e-10	1.000000e-10	1.000000e-10	1.000000e-10	1.000000e-10	1.000000e-10	1.000000e-10	1.000000e-10	1.000000e-10	1.000000e-10	1.000000e-10	1.000000e-10	1.000000e-10	1.000000e-10	1.000000e-10	1.000000e-10	1.000000e-10	1.000000e-10	1.000000e-10	1.000000e-10	1.000000e-10	1.000000e-10	1.000000e-10	1.000000e-10	1.000000e-10	
SCALARS Omega double 1
LOOKUP_TABLE default
3.417315e+07	2.898847e+07	2.935539e+07	2.898347e+07	3.417626e+07	3.997019e+07	4.039041e+07	3.997278e+07	3.391408e+07	3.365635e+07	3.340418e+07	3.315880e+07	3.292239e+07	3.269460e+07	3.247489e+07	3.226144e+07	3.205632e+07	3.185800e+07	3.166604e+07	3.147833e+07	3.129750e+07	3.112223e+07	3.095211e+07	3.078534e+07	3.062520e+07	3.047124e+07	3.032291e+07	3.017860e+07	3.003964e+07	2.990576e+07	2.977680e+07	2.965205e+07	2.953187e+07	2.941619e+07	2.930560e+07	2.920064e+07	2.910345e+07	2.902093e+07	2.896144e+07	2.894588e+07	2.903032e+07	2.910494e+07	2.915882e+07	2.920462e+07	2.923620e+07	2.926045e+07	2.927853e+07	2.929351e+07	2.930572e+07	2.931635e+07	2.932543e+07	2.933358e+07	2.934054e+07	2.934645e+07	2.935090e+07	2.935407e+07	2.935434e+07	2.935150e+07	2.934714e+07	2.934137e+07	2.933428e+07	2.932606e+07	2.931651e+07	2.930560e+07	2.929296e+07	2.927778e+07	2.925949e+07	2.923474e+07	2.920219e+07	2.915441e+07	2.910056e+07	2.902468e+07	2.893979e+07	2.895722e+07	2.901732e+07	2.910067e+07	2.919848e+07	2.930433e+07	2.941594e+07	2.953182e+07	2.965240e+07	2.977705e+07	2.990643e+07	3.004097e+07	3.018183e+07	3.032698e+07	3.047645e+07	3.063042e+07	3.079081e+07	3.095534e+07	3.112492e+07	3.129986e+07	3.148264e+07	3.167018e+07	3.186323e+07	3.206168e+07	3.226743e+07	3.247880e+07	3.269733e+07	3.292367e+07	3.315975e+07	3.340458e+07	3.365742e+07	3.391549e+07	3.443640e+07	3.469619e+07	3.495143e+07	3.520244e+07	3.544673e+07	3.568437e+07	3.591524e+07	3.613982e+07	3.635773e+07	3.656974e+07	3.677566e+07	3.697637e+07	3.717148e+07	3.736157e+07	3.754648e+07	3.772649e+07	3.790141e+07	3.807160e+07	3.823685e+07	3.839749e+07	3.855380e+07	3.870596e+07	3.885391e+07	3.899759e+07	3.913790e+07	3.927460e+07	3.940708e+07	3.953290e+07	3.965107e+07	3.975578e+07	3.984675e+07	3.991771e+07	4.005689e+07	4.013149e+07	4.022338e+07	4.031329e+07	4.040260e+07	4.047953e+07	4.054274e+07	4.057961e+07	4.058998e+07	4.057798e+07	4.054644e+07	4.051196e+07	4.047393e+07	4.044179e+07	4.041230e+07	4.039575e+07	4.039664e+07	4.041518e+07	4.043986e+07	4.047409e+07	4.051074e+07	4.055161e+07	4.057849e+07	4.058956e+07	4.057594e+07	4.053705e+07	4.047798e+07	4.040049e+07	4.031285e+07	4.022002e+07	4.013373e+07	4.005989e+07	3.991642e+07	3.984420e+07	3.975368e+07	3.964923e+07	3.953229e+07	3.940565e+07	3.927312e+07	3.913651e+07	3.899675e+07	3.885286e+07	3.870480e+07	3.855257e+07	3.839609e+07	3.823505e+07	3.806943e+07	3.789939e+07	3.772455e+07	3.754497e+07	3.736011e+07	3.717021e+07	3.697482e+07	3.677418e+07	3.656791e+07	3.635610e+07	3.613810e+07	3.591407e+07	3.568319e+07	3.544540e+07	3.520017e+07	3.494894e+07	3.469175e+07	3.443248e+07	
SCALARS Pressure double 1
LOOKUP_TABLE default
1.013432e+05	1.012326e+05	1.014262e+05	1.012323e+05	1.013431e+05	1.013415e+05	1.013544e+05	1.013409e+05	1.013431e+05	1.013431e+05	1.013431e+05	1.013432e+05	1.013432e+05	1.013431e+05	1.013430e+05	1.013430e+05	1.013429e+05	1.013428e+05	1.013426e+05	1.013425e+05	1.013423e+05	1.013421e+05	1.013419e+05	1.013416e+05	1.013413e+05	1.013409e+05	1.013405e+05	1.013401e+05	1.013394e+05	1.013388e+05	1.013378e+05	1.013370e+05	1.013357e+05	1.013343e+05	1.013324e+05	1.013301e+05	1.013275e+05	1.013220e+05	1.013219e+05	1.013024e+05	1.012909e+05	1.012556e+05	1.012763e+05	1.012841e+05	1.013049e+05	1.013222e+05	1.013418e+05	1.013590e+05	1.013752e+05	1.013889e+05	1.014005e+05	1.014098e+05	1.014169e+05	1.014219e+05	1.014252e+05	1.014264e+05	1.014264e+05	1.014252e+05	1.014218e+05	1.014169e+05	1.014097e+05	1.014005e+05	1.013888e+05	1.013752e+05	1.013589e+05	1.013418e+05	1.013221e+05	1.013049e+05	1.012839e+05	1.012765e+05	1.012553e+05	1.012912e+05	1.013027e+05	1.013219e+05	1.013220e+05	1.013275e+05	1.013300e+05	1.013326e+05	1.013341e+05	1.013357e+05	1.013369e+05	1.013380e+05	1.013387e+05	1.013394e+05	1.013400e+05	1.013405e+05	1.013409e+05	1.013413e+05	1.013416e+05	1.013419e+05	1.013421e+05	1.013423e+05	1.013425e+05	1.013426e+05	1.013427e+05	1.013428e+05	1.013429e+05	1.013430e+05	1.013431e+05	1.013431e+05	1.013432e+05	1.013432e+05	1.013431e+05	1.013431e+05	1.013432e+05	1.013431e+05	1.013431e+05	1.013430e+05	1.013428e+05	1.013427e+05	1.013426e+05	1.013425e+05	1.013423e+05	1.013422e+05	1.013420e+05	1.013419e+05	1.013417e+05	1.013415e+05	1.013413e+05	1.013410e+05	1.013407e+05	1.013404e+05	1.013401e+05	1.013398e+05	1.013394e+05	1.013389e+05	1.013384e+05	1.013378e+05	1.013371e+05	1.013363e+05	1.013353e+05	1.013341e+05	1.013326e+05	1.013314e+05	1.013259e+05	1.013261e+05	1.012796e+05	1.012850e+05	1.012862e+05	1.012978e+05	1.013066e+05	1.013167e+05	1.013238e+05	1.013301e+05	1.013343e+05	1.013381e+05	1.013416e+05	1.013449e+05	1.013482e+05	1.013507e+05	1.013532e+05	1.013543e+05	1.013543e+05	1.013530e+05	1.013511e+05	1.013480e+05	1.013450e+05	1.013414e+05	1.013381e+05	1.013345e+05	1.013299e+05	1.013240e+05	1.013164e+05	1.013069e+05	1.012975e+05	1.012867e+05	1.012842e+05	1.012801e+05	1.013268e+05	1.013253e+05	1.013318e+05	1.013323e+05	1.013343e+05	1.013352e+05	1.013363e+05	1.013371e+05	1.013378e+05	1.013384e+05	1.013389e+05	1.013394e+05	1.013398e+05	1.013401e+05	1.013405e+05	1.013407e+05	1.013410e+05	1.013413e+05	1.013415e+05	1.013417e+05	1.013419e+05	1.013420e+05	1.013422e+05	1.013424e+05	1.013425e+05	1.013426e+05	1.013427e+05	1.013429e+05	1.013430e+05	1.013430e+05	1.013431e+05	1.013432e+05	
SCALARS Temperature double 1
LOOKUP_TABLE default